Program Version,EnergyPlus, Version 9.3.0-baff08990c, YMD=2021.07.01 17:11
1,5,Environment Title[],Latitude[deg],Longitude[deg],Time Zone[],Elevation[m]
2,8,Day of Simulation[],Month[],Day of Month[],DST Indicator[1=yes 0=no],Hour[],StartMinute[],EndMinute[],DayType
3,5,Cumulative Day of Simulation[],Month[],Day of Month[],DST Indicator[1=yes 0=no],DayType  ! When Daily Report Variables Requested
4,2,Cumulative Days of Simulation[],Month[]  ! When Monthly Report Variables Requested
5,1,Cumulative Days of Simulation[] ! When Run Period Report Variables Requested
6,1,Calendar Year of Simulation[] ! When Annual Report Variables Requested
231,1,ZONEFLOOR0_DHW,Hot Water Equipment District Heating Rate [W] !Hourly
232,1,ZONEFLOOR0_DHW,Hot Water Equipment District Heating Energy [J] !Hourly
305,1,ZONEFLOOR1_DHW,Hot Water Equipment District Heating Rate [W] !Hourly
306,1,ZONEFLOOR1_DHW,Hot Water Equipment District Heating Energy [J] !Hourly
331,1,ZONEFLOOR2_DHW,Hot Water Equipment District Heating Rate [W] !Hourly
332,1,ZONEFLOOR2_DHW,Hot Water Equipment District Heating Energy [J] !Hourly
357,1,ZONEFLOOR3_DHW,Hot Water Equipment District Heating Rate [W] !Hourly
358,1,ZONEFLOOR3_DHW,Hot Water Equipment District Heating Energy [J] !Hourly
383,11,ZONEFLOOR0_WALL_0,Surface Outside Face Incident Solar Radiation Rate per Area [W/m2] !RunPeriod [Value,Min,Month,Day,Hour,Minute,Max,Month,Day,Hour,Minute]
384,11,ZONEFLOOR0_WALL_0_WIN,Surface Outside Face Incident Solar Radiation Rate per Area [W/m2] !RunPeriod [Value,Min,Month,Day,Hour,Minute,Max,Month,Day,Hour,Minute]
385,11,ZONEFLOOR0_WALL_1,Surface Outside Face Incident Solar Radiation Rate per Area [W/m2] !RunPeriod [Value,Min,Month,Day,Hour,Minute,Max,Month,Day,Hour,Minute]
386,11,ZONEFLOOR0_WALL_1_WIN,Surface Outside Face Incident Solar Radiation Rate per Area [W/m2] !RunPeriod [Value,Min,Month,Day,Hour,Minute,Max,Month,Day,Hour,Minute]
387,11,ZONEFLOOR0_WALL_2,Surface Outside Face Incident Solar Radiation Rate per Area [W/m2] !RunPeriod [Value,Min,Month,Day,Hour,Minute,Max,Month,Day,Hour,Minute]
388,11,ZONEFLOOR0_WALL_2_WIN,Surface Outside Face Incident Solar Radiation Rate per Area [W/m2] !RunPeriod [Value,Min,Month,Day,Hour,Minute,Max,Month,Day,Hour,Minute]
389,11,ZONEFLOOR0_WALL_3,Surface Outside Face Incident Solar Radiation Rate per Area [W/m2] !RunPeriod [Value,Min,Month,Day,Hour,Minute,Max,Month,Day,Hour,Minute]
390,11,ZONEFLOOR0_WALL_3_WIN,Surface Outside Face Incident Solar Radiation Rate per Area [W/m2] !RunPeriod [Value,Min,Month,Day,Hour,Minute,Max,Month,Day,Hour,Minute]
391,11,ZONEFLOOR1_WALL_0,Surface Outside Face Incident Solar Radiation Rate per Area [W/m2] !RunPeriod [Value,Min,Month,Day,Hour,Minute,Max,Month,Day,Hour,Minute]
392,11,ZONEFLOOR1_WALL_0_WIN,Surface Outside Face Incident Solar Radiation Rate per Area [W/m2] !RunPeriod [Value,Min,Month,Day,Hour,Minute,Max,Month,Day,Hour,Minute]
393,11,ZONEFLOOR1_WALL_1,Surface Outside Face Incident Solar Radiation Rate per Area [W/m2] !RunPeriod [Value,Min,Month,Day,Hour,Minute,Max,Month,Day,Hour,Minute]
394,11,ZONEFLOOR1_WALL_1_WIN,Surface Outside Face Incident Solar Radiation Rate per Area [W/m2] !RunPeriod [Value,Min,Month,Day,Hour,Minute,Max,Month,Day,Hour,Minute]
395,11,ZONEFLOOR1_WALL_2,Surface Outside Face Incident Solar Radiation Rate per Area [W/m2] !RunPeriod [Value,Min,Month,Day,Hour,Minute,Max,Month,Day,Hour,Minute]
396,11,ZONEFLOOR1_WALL_2_WIN,Surface Outside Face Incident Solar Radiation Rate per Area [W/m2] !RunPeriod [Value,Min,Month,Day,Hour,Minute,Max,Month,Day,Hour,Minute]
397,11,ZONEFLOOR1_WALL_3,Surface Outside Face Incident Solar Radiation Rate per Area [W/m2] !RunPeriod [Value,Min,Month,Day,Hour,Minute,Max,Month,Day,Hour,Minute]
398,11,ZONEFLOOR1_WALL_3_WIN,Surface Outside Face Incident Solar Radiation Rate per Area [W/m2] !RunPeriod [Value,Min,Month,Day,Hour,Minute,Max,Month,Day,Hour,Minute]
399,11,ZONEFLOOR2_WALL_0,Surface Outside Face Incident Solar Radiation Rate per Area [W/m2] !RunPeriod [Value,Min,Month,Day,Hour,Minute,Max,Month,Day,Hour,Minute]
400,11,ZONEFLOOR2_WALL_0_WIN,Surface Outside Face Incident Solar Radiation Rate per Area [W/m2] !RunPeriod [Value,Min,Month,Day,Hour,Minute,Max,Month,Day,Hour,Minute]
401,11,ZONEFLOOR2_WALL_1,Surface Outside Face Incident Solar Radiation Rate per Area [W/m2] !RunPeriod [Value,Min,Month,Day,Hour,Minute,Max,Month,Day,Hour,Minute]
402,11,ZONEFLOOR2_WALL_1_WIN,Surface Outside Face Incident Solar Radiation Rate per Area [W/m2] !RunPeriod [Value,Min,Month,Day,Hour,Minute,Max,Month,Day,Hour,Minute]
403,11,ZONEFLOOR2_WALL_2,Surface Outside Face Incident Solar Radiation Rate per Area [W/m2] !RunPeriod [Value,Min,Month,Day,Hour,Minute,Max,Month,Day,Hour,Minute]
404,11,ZONEFLOOR2_WALL_2_WIN,Surface Outside Face Incident Solar Radiation Rate per Area [W/m2] !RunPeriod [Value,Min,Month,Day,Hour,Minute,Max,Month,Day,Hour,Minute]
405,11,ZONEFLOOR2_WALL_3,Surface Outside Face Incident Solar Radiation Rate per Area [W/m2] !RunPeriod [Value,Min,Month,Day,Hour,Minute,Max,Month,Day,Hour,Minute]
406,11,ZONEFLOOR2_WALL_3_WIN,Surface Outside Face Incident Solar Radiation Rate per Area [W/m2] !RunPeriod [Value,Min,Month,Day,Hour,Minute,Max,Month,Day,Hour,Minute]
407,11,ZONEFLOOR3_WALL_0,Surface Outside Face Incident Solar Radiation Rate per Area [W/m2] !RunPeriod [Value,Min,Month,Day,Hour,Minute,Max,Month,Day,Hour,Minute]
408,11,ZONEFLOOR3_WALL_0_WIN,Surface Outside Face Incident Solar Radiation Rate per Area [W/m2] !RunPeriod [Value,Min,Month,Day,Hour,Minute,Max,Month,Day,Hour,Minute]
409,11,ZONEFLOOR3_WALL_1,Surface Outside Face Incident Solar Radiation Rate per Area [W/m2] !RunPeriod [Value,Min,Month,Day,Hour,Minute,Max,Month,Day,Hour,Minute]
410,11,ZONEFLOOR3_WALL_1_WIN,Surface Outside Face Incident Solar Radiation Rate per Area [W/m2] !RunPeriod [Value,Min,Month,Day,Hour,Minute,Max,Month,Day,Hour,Minute]
411,11,ZONEFLOOR3_WALL_2,Surface Outside Face Incident Solar Radiation Rate per Area [W/m2] !RunPeriod [Value,Min,Month,Day,Hour,Minute,Max,Month,Day,Hour,Minute]
412,11,ZONEFLOOR3_WALL_2_WIN,Surface Outside Face Incident Solar Radiation Rate per Area [W/m2] !RunPeriod [Value,Min,Month,Day,Hour,Minute,Max,Month,Day,Hour,Minute]
413,11,ZONEFLOOR3_WALL_3,Surface Outside Face Incident Solar Radiation Rate per Area [W/m2] !RunPeriod [Value,Min,Month,Day,Hour,Minute,Max,Month,Day,Hour,Minute]
414,11,ZONEFLOOR3_WALL_3_WIN,Surface Outside Face Incident Solar Radiation Rate per Area [W/m2] !RunPeriod [Value,Min,Month,Day,Hour,Minute,Max,Month,Day,Hour,Minute]
415,11,ZONEFLOOR3_ROOF,Surface Outside Face Incident Solar Radiation Rate per Area [W/m2] !RunPeriod [Value,Min,Month,Day,Hour,Minute,Max,Month,Day,Hour,Minute]
602,1,ZONEFLOOR0,Zone Air Temperature [C] !Hourly
641,1,ZONEFLOOR1,Zone Air Temperature [C] !Hourly
680,1,ZONEFLOOR2,Zone Air Temperature [C] !Hourly
719,1,ZONEFLOOR3,Zone Air Temperature [C] !Hourly
720,1,ZONEFLOOR0 IDEAL LOADS AIR SYSTEM,Zone Ideal Loads Supply Air Total Heating Energy [J] !Hourly
757,1,ZONEFLOOR0 IDEAL LOADS AIR SYSTEM,Zone Ideal Loads Supply Air Total Cooling Energy [J] !Hourly
806,1,ZONEFLOOR0 IDEAL LOADS AIR SYSTEM,Zone Ideal Loads Supply Air Sensible Heating Rate [W] !Hourly
807,1,ZONEFLOOR1 IDEAL LOADS AIR SYSTEM,Zone Ideal Loads Supply Air Total Heating Energy [J] !Hourly
808,1,ZONEFLOOR1 IDEAL LOADS AIR SYSTEM,Zone Ideal Loads Supply Air Total Cooling Energy [J] !Hourly
809,1,ZONEFLOOR1 IDEAL LOADS AIR SYSTEM,Zone Ideal Loads Supply Air Sensible Heating Rate [W] !Hourly
810,1,ZONEFLOOR2 IDEAL LOADS AIR SYSTEM,Zone Ideal Loads Supply Air Total Heating Energy [J] !Hourly
811,1,ZONEFLOOR2 IDEAL LOADS AIR SYSTEM,Zone Ideal Loads Supply Air Total Cooling Energy [J] !Hourly
812,1,ZONEFLOOR2 IDEAL LOADS AIR SYSTEM,Zone Ideal Loads Supply Air Sensible Heating Rate [W] !Hourly
813,1,ZONEFLOOR3 IDEAL LOADS AIR SYSTEM,Zone Ideal Loads Supply Air Total Heating Energy [J] !Hourly
814,1,ZONEFLOOR3 IDEAL LOADS AIR SYSTEM,Zone Ideal Loads Supply Air Total Cooling Energy [J] !Hourly
815,1,ZONEFLOOR3 IDEAL LOADS AIR SYSTEM,Zone Ideal Loads Supply Air Sensible Heating Rate [W] !Hourly
238,11,DistrictHeating:Facility [J] !RunPeriod [Value,Min,Month,Day,Hour,Minute,Max,Month,Day,Hour,Minute]
763,11,DistrictCooling:Facility [J] !RunPeriod [Value,Min,Month,Day,Hour,Minute,Max,Month,Day,Hour,Minute]
13,11,Electricity:Facility [J] !RunPeriod [Value,Min,Month,Day,Hour,Minute,Max,Month,Day,Hour,Minute]
726,11,DistrictHeating:HVAC [J] !RunPeriod [Value,Min,Month,Day,Hour,Minute,Max,Month,Day,Hour,Minute]
250,11,DistrictHeating:Building [J] !RunPeriod [Value,Min,Month,Day,Hour,Minute,Max,Month,Day,Hour,Minute]
234,1,DistrictHeating:Facility [J] !Hourly
759,1,DistrictCooling:Facility [J] !Hourly
9,1,Electricity:Facility [J] !Hourly
722,1,DistrictHeating:HVAC [J] !Hourly
246,1,DistrictHeating:Building [J] !Hourly
End of Data Dictionary
1,DEFAULTRUNPERIOD,  47.48,   8.53,   1.00, 436.00
2,1, 1, 1, 0, 1, 0.00,60.00,Sunday
231,0.0
232,0.0
305,0.0
306,0.0
331,0.0
332,0.0
357,0.0
358,0.0
602,18.325285321971977
641,18.48573639864412
680,18.403844897919947
719,18.036985409266984
720,0.0
757,0.0
806,0.0
807,0.0
808,0.0
809,0.0
810,0.0
811,0.0
812,0.0
813,0.0
814,0.0
815,0.0
9,3241235.610875866
234,0.0
246,0.0
722,0.0
759,0.0
2,1, 1, 1, 0, 2, 0.00,60.00,Sunday
231,0.0
232,0.0
305,0.0
306,0.0
331,0.0
332,0.0
357,0.0
358,0.0
602,18.296397659349524
641,18.45613211944248
680,18.373473080647274
719,18.004806845960429
720,0.0
757,0.0
806,0.0
807,0.0
808,0.0
809,0.0
810,0.0
811,0.0
812,0.0
813,0.0
814,0.0
815,0.0
9,3241235.610875866
234,0.0
246,0.0
722,0.0
759,0.0
2,1, 1, 1, 0, 3, 0.00,60.00,Sunday
231,0.0
232,0.0
305,0.0
306,0.0
331,0.0
332,0.0
357,0.0
358,0.0
602,18.24927914053482
641,18.40467120703057
680,18.320664035704746
719,17.948655406110907
720,0.0
757,0.0
806,0.0
807,0.0
808,0.0
809,0.0
810,0.0
811,0.0
812,0.0
813,0.0
814,0.0
815,0.0
9,5185976.977401385
234,0.0
246,0.0
722,0.0
759,0.0
2,1, 1, 1, 0, 4, 0.00,60.00,Sunday
231,1523.0806227032402
232,5483090.241731664
305,1523.0806227032402
306,5483090.241731664
331,1523.0806227032402
332,5483090.241731664
357,1523.0806227032402
358,5483090.241731664
602,20.696644021017648
641,20.697033700756206
680,20.69681965256909
719,20.695798539628816
720,12399666.567731612
757,0.0
806,3444.351824369892
807,11824312.560245555
808,0.0
809,3284.5312667348769
810,12614713.709970346
811,0.0
812,3504.0871416584298
813,15195535.080816417
814,0.0
815,4220.981966893449
9,32164263.57690572
234,73966588.88569059
246,21932360.966926658
722,52034227.918763939
759,0.0
2,1, 1, 1, 0, 5, 0.00,60.00,Sunday
231,1015.3870818021601
232,3655393.4944877766
305,1015.3870818021601
306,3655393.4944877766
331,1015.3870818021601
332,3655393.4944877766
357,1015.3870818021601
358,3655393.4944877766
602,20.7
641,20.700000000000004
680,20.700000000000004
719,20.700000000000004
720,9633814.246001875
757,0.0
806,2676.059512778298
807,9507215.67849543
808,0.0
809,2640.893244026509
810,10251216.679213882
811,0.0
812,2847.560188670523
813,12124748.146690602
814,0.0
815,3367.985596302945
9,16606332.644701563
234,56138568.72835289
246,14621573.977951106
722,41516994.75040179
759,0.0
2,1, 1, 1, 0, 6, 0.00,60.00,Sunday
231,0.0
232,0.0
305,0.0
306,0.0
331,0.0
332,0.0
357,0.0
358,0.0
602,19.092750252809706
641,19.113015444222517
680,19.03337457464018
719,18.800822735676755
720,0.0
757,0.0
806,0.0
807,0.0
808,0.0
809,0.0
810,0.0
811,0.0
812,0.0
813,0.0
814,0.0
815,0.0
9,5775127.024558093
234,0.0
246,0.0
722,0.0
759,0.0
2,1, 1, 1, 0, 7, 0.00,60.00,Sunday
231,0.0
232,0.0
305,0.0
306,0.0
331,0.0
332,0.0
357,0.0
358,0.0
602,18.402081248901554
641,18.481256331225376
680,18.394740720801637
719,18.059596902904244
720,0.0
757,0.0
806,0.0
807,0.0
808,0.0
809,0.0
810,0.0
811,0.0
812,0.0
813,0.0
814,0.0
815,0.0
9,5775127.024558093
234,0.0
246,0.0
722,0.0
759,0.0
2,1, 1, 1, 0, 8, 0.00,60.00,Sunday
231,0.0
232,0.0
305,0.0
306,0.0
331,0.0
332,0.0
357,0.0
358,0.0
602,18.284026940829436
641,18.397870503610795
680,18.307721957177124
719,18.00000200066547
720,0.0
757,0.0
806,0.0
807,0.0
808,0.0
809,0.0
810,0.0
811,0.0
812,0.0
813,338511.13232911008
814,0.0
815,94.03087009141948
9,5775127.024558093
234,338511.13232911008
246,0.0
722,338511.13232911008
759,0.0
2,1, 1, 1, 0, 9, 0.00,60.00,Sunday
231,0.0
232,0.0
305,0.0
306,0.0
331,0.0
332,0.0
357,0.0
358,0.0
602,18.213625364343007
641,18.342964222488896
680,18.25061092026361
719,18.0
720,0.0
757,0.0
806,0.0
807,0.0
808,0.0
809,0.0
810,0.0
811,0.0
812,0.0
813,552426.5909375295
814,0.0
815,153.4518308159804
9,5775127.024558093
234,552426.5909375295
246,0.0
722,552426.5909375295
759,0.0
2,1, 1, 1, 0,10, 0.00,60.00,Sunday
231,2030.7741636043202
232,7310786.988975553
305,2030.7741636043202
306,7310786.988975553
331,2030.7741636043202
332,7310786.988975553
357,2030.7741636043202
358,7310786.988975553
602,20.69661898488641
641,20.69695005192181
680,20.69671492100749
719,20.696039133320043
720,12615357.155587744
757,0.0
806,3504.265876552151
807,12109049.093667284
808,0.0
809,3363.6247482409128
810,12888949.953362063
811,0.0
812,3580.263875933907
813,14922886.266101746
814,0.0
815,4145.246185028263
9,32164263.57690572
234,81779390.42462105
246,29243147.95590221
722,52536242.46871884
759,0.0
2,1, 1, 1, 0,11, 0.00,60.00,Sunday
231,1015.3870818021601
232,3655393.4944877766
305,1015.3870818021601
306,3655393.4944877766
331,1015.3870818021601
332,3655393.4944877766
357,1015.3870818021601
358,3655393.4944877766
602,20.700000000000004
641,20.700000000000004
680,20.700000000000004
719,20.7
720,8441776.85393032
757,0.0
806,2344.9380149806449
807,8265315.341395408
808,0.0
809,2295.920928165391
810,8942453.430374705
811,0.0
812,2484.014841770751
813,10533495.269264613
814,0.0
815,2925.9709081290595
9,16606332.644701563
234,50804614.87291615
246,14621573.977951106
722,36183040.89496505
759,0.0
2,1, 1, 1, 0,12, 0.00,60.00,Sunday
231,0.0
232,0.0
305,0.0
306,0.0
331,0.0
332,0.0
357,0.0
358,0.0
602,19.366564508737988
641,19.388785415400748
680,19.324897190116177
719,19.132322808483865
720,0.0
757,0.0
806,0.0
807,0.0
808,0.0
809,0.0
810,0.0
811,0.0
812,0.0
813,0.0
814,0.0
815,0.0
9,5775127.024558093
234,0.0
246,0.0
722,0.0
759,0.0
2,1, 1, 1, 0,13, 0.00,60.00,Sunday
231,0.0
232,0.0
305,0.0
306,0.0
331,0.0
332,0.0
357,0.0
358,0.0
602,18.914118375549099
641,18.953853865699114
680,18.894940717043906
719,18.641368265386008
720,0.0
757,0.0
806,0.0
807,0.0
808,0.0
809,0.0
810,0.0
811,0.0
812,0.0
813,0.0
814,0.0
815,0.0
9,5775127.024558093
234,0.0
246,0.0
722,0.0
759,0.0
2,1, 1, 1, 0,14, 0.00,60.00,Sunday
231,0.0
232,0.0
305,0.0
306,0.0
331,0.0
332,0.0
357,0.0
358,0.0
602,18.89933348363724
641,18.953052152748705
680,18.90157771566154
719,18.624249802209137
720,0.0
757,0.0
806,0.0
807,0.0
808,0.0
809,0.0
810,0.0
811,0.0
812,0.0
813,0.0
814,0.0
815,0.0
9,5775127.024558093
234,0.0
246,0.0
722,0.0
759,0.0
2,1, 1, 1, 0,15, 0.00,60.00,Sunday
231,1015.3870818021601
232,3655393.4944877766
305,1015.3870818021601
306,3655393.4944877766
331,1015.3870818021601
332,3655393.4944877766
357,1015.3870818021601
358,3655393.4944877766
602,20.69817126146769
641,20.69827507841398
680,20.698194301966443
719,20.697584440640108
720,8458800.072286923
757,0.0
806,2349.6666867463679
807,8290155.226064469
808,0.0
809,2302.8208961290195
810,8680863.997809463
811,0.0
812,2411.3511105026288
813,10808735.89791055
814,0.0
815,3002.426638308486
9,16606332.644701563
234,50860129.17202251
246,14621573.977951106
722,36238555.194071408
759,0.0
2,1, 1, 1, 0,16, 0.00,60.00,Sunday
231,2030.7741636043202
232,7310786.988975553
305,2030.7741636043202
306,7310786.988975553
331,2030.7741636043202
332,7310786.988975553
357,2030.7741636043202
358,7310786.988975553
602,20.7
641,20.7
680,20.7
719,20.700000000000004
720,5625559.256632301
757,0.0
806,1562.655349064528
807,5680867.673546128
808,0.0
809,1578.0187982072576
810,6168655.835264947
811,0.0
812,1713.5155097958189
813,7778755.776150681
814,0.0
815,2160.765493375189
9,32164263.57690572
234,54496986.49749627
246,29243147.95590221
722,25253838.54159405
759,0.0
2,1, 1, 1, 0,17, 0.00,60.00,Sunday
231,2030.7741636043202
232,7310786.988975553
305,2030.7741636043202
306,7310786.988975553
331,2030.7741636043202
332,7310786.988975553
357,2030.7741636043202
358,7310786.988975553
602,20.40128934236916
641,20.40128808480514
680,20.401283698172688
719,20.40127146964532
720,3495912.4164427018
757,0.0
806,971.0867823451949
807,3618367.2283785075
808,0.0
809,1005.1020078829187
810,4069741.770876075
811,0.0
812,1130.483825243354
813,5586169.550059761
814,0.0
815,1551.713763905489
9,34816349.14062488
234,46013338.92165925
246,29243147.95590221
722,16770190.965757046
759,0.0
2,1, 1, 1, 0,18, 0.00,60.00,Sunday
231,2030.7741636043202
232,7310786.988975553
305,2030.7741636043202
306,7310786.988975553
331,2030.7741636043202
332,7310786.988975553
357,2030.7741636043202
358,7310786.988975553
602,20.400000000111228
641,20.400000000110496
680,20.400000000108326
719,20.40000000010244
720,5324341.405801754
757,0.0
806,1478.983723833821
807,5377256.466925895
808,0.0
809,1493.6823519238597
810,5824418.502702703
811,0.0
812,1617.8940285285287
813,7499666.520320702
814,0.0
815,2083.240700089084
9,14072441.231019335
234,53268830.85165327
246,29243147.95590221
722,24025682.89575106
759,0.0
2,1, 1, 1, 0,19, 0.00,60.00,Sunday
231,2538.4677045054006
232,9138483.736219442
305,2538.4677045054006
306,9138483.736219442
331,2538.4677045054006
332,9138483.736219442
357,2538.4677045054006
358,9138483.736219442
602,20.4
641,20.4
680,20.4
719,20.4
720,5937472.070303654
757,0.0
806,1649.2977973065707
807,5928717.361565459
808,0.0
809,1646.8659337681827
810,6379110.307360434
811,0.0
812,1771.9750853778983
813,8122770.748996068
814,0.0
815,2256.3252080544637
9,14072441.231019335
234,62922005.43310338
246,36553934.944877769
722,26368070.488225614
759,0.0
2,1, 1, 1, 0,20, 0.00,60.00,Sunday
231,0.0
232,0.0
305,0.0
306,0.0
331,0.0
332,0.0
357,0.0
358,0.0
602,19.333795349127464
641,19.35670380548315
680,19.300133385266045
719,19.07478693817211
720,0.0
757,0.0
806,0.0
807,0.0
808,0.0
809,0.0
810,0.0
811,0.0
812,0.0
813,0.0
814,0.0
815,0.0
9,5185976.977401385
234,0.0
246,0.0
722,0.0
759,0.0
2,1, 1, 1, 0,21, 0.00,60.00,Sunday
231,0.0
232,0.0
305,0.0
306,0.0
331,0.0
332,0.0
357,0.0
358,0.0
602,18.784450681426124
641,18.867466430291743
680,18.795839025268469
719,18.492180571451486
720,0.0
757,0.0
806,0.0
807,0.0
808,0.0
809,0.0
810,0.0
811,0.0
812,0.0
813,0.0
814,0.0
815,0.0
9,3241235.610875866
234,0.0
246,0.0
722,0.0
759,0.0
2,1, 1, 1, 0,22, 0.00,60.00,Sunday
231,0.0
232,0.0
305,0.0
306,0.0
331,0.0
332,0.0
357,0.0
358,0.0
602,18.623375210446896
641,18.742950076440594
680,18.667090175409688
719,18.333512377032464
720,0.0
757,0.0
806,0.0
807,0.0
808,0.0
809,0.0
810,0.0
811,0.0
812,0.0
813,0.0
814,0.0
815,0.0
9,3241235.610875866
234,0.0
246,0.0
722,0.0
759,0.0
2,1, 1, 1, 0,23, 0.00,60.00,Sunday
231,0.0
232,0.0
305,0.0
306,0.0
331,0.0
332,0.0
357,0.0
358,0.0
602,18.490766830089023
641,18.630722193776124
680,18.5518385533062
719,18.201664417986817
720,0.0
757,0.0
806,0.0
807,0.0
808,0.0
809,0.0
810,0.0
811,0.0
812,0.0
813,0.0
814,0.0
815,0.0
9,3241235.610875866
234,0.0
246,0.0
722,0.0
759,0.0
2,1, 1, 1, 0,24, 0.00,60.00,Sunday
231,0.0
232,0.0
305,0.0
306,0.0
331,0.0
332,0.0
357,0.0
358,0.0
602,18.36147331327416
641,18.51397756919852
680,18.432869426401138
719,18.071535266488973
720,0.0
757,0.0
806,0.0
807,0.0
808,0.0
809,0.0
810,0.0
811,0.0
812,0.0
813,0.0
814,0.0
815,0.0
9,3241235.610875866
234,0.0
246,0.0
722,0.0
759,0.0
2,2, 1, 2, 0, 1, 0.00,60.00,Monday
231,0.0
232,0.0
305,0.0
306,0.0
331,0.0
332,0.0
357,0.0
358,0.0
602,18.216878917547989
641,18.37813472352429
680,18.29532039158784
719,17.925716983857936
720,0.0
757,0.0
806,0.0
807,0.0
808,0.0
809,0.0
810,0.0
811,0.0
812,0.0
813,0.0
814,0.0
815,0.0
9,3241235.610875866
234,0.0
246,0.0
722,0.0
759,0.0
2,2, 1, 2, 0, 2, 0.00,60.00,Monday
231,0.0
232,0.0
305,0.0
306,0.0
331,0.0
332,0.0
357,0.0
358,0.0
602,18.04743052869521
641,18.216692846345077
680,18.132326850950024
719,17.755349216339817
720,0.0
757,0.0
806,0.0
807,0.0
808,0.0
809,0.0
810,0.0
811,0.0
812,0.0
813,0.0
814,0.0
815,0.0
9,3241235.610875866
234,0.0
246,0.0
722,0.0
759,0.0
2,2, 1, 2, 0, 3, 0.00,60.00,Monday
231,0.0
232,0.0
305,0.0
306,0.0
331,0.0
332,0.0
357,0.0
358,0.0
602,17.89465195876973
641,18.070400150467689
680,17.984807821652028
719,17.601809176204303
720,0.0
757,0.0
806,0.0
807,0.0
808,0.0
809,0.0
810,0.0
811,0.0
812,0.0
813,0.0
814,0.0
815,0.0
9,5185976.977401385
234,0.0
246,0.0
722,0.0
759,0.0
2,2, 1, 2, 0, 4, 0.00,60.00,Monday
231,1523.0806227032402
232,5483090.241731664
305,1523.0806227032402
306,5483090.241731664
331,1523.0806227032402
332,5483090.241731664
357,1523.0806227032402
358,5483090.241731664
602,20.695534939899063
641,20.696051107288679
680,20.695803210919146
719,20.694614804895779
720,15582480.328860809
757,0.0
806,4328.466758016892
807,14862235.775048849
808,0.0
809,4128.398826402458
810,15683835.706122045
811,0.0
812,4356.621029478346
813,18417908.01869167
814,0.0
815,5116.085560747686
9,32164263.57690572
234,86478820.79565002
246,21932360.966926658
722,64546459.82872337
759,0.0
2,2, 1, 2, 0, 5, 0.00,60.00,Monday
231,1015.3870818021601
232,3655393.4944877766
305,1015.3870818021601
306,3655393.4944877766
331,1015.3870818021601
332,3655393.4944877766
357,1015.3870818021601
358,3655393.4944877766
602,20.7
641,20.7
680,20.700000000000004
719,20.699999999999997
720,12100154.764694382
757,0.0
806,3361.154101303995
807,11918204.900970366
808,0.0
809,3310.612472491768
810,12678398.653649312
811,0.0
812,3521.7774037914757
813,14586904.45268956
814,0.0
815,4051.917903524878
9,16606332.644701563
234,65905236.74995472
246,14621573.977951106
722,51283662.77200362
759,0.0
2,2, 1, 2, 0, 6, 0.00,60.00,Monday
231,0.0
232,0.0
305,0.0
306,0.0
331,0.0
332,0.0
357,0.0
358,0.0
602,18.76184545361569
641,18.79391678869745
680,18.717651868573506
719,18.54375111471061
720,0.0
757,0.0
806,0.0
807,0.0
808,0.0
809,0.0
810,0.0
811,0.0
812,0.0
813,449069.32968301916
814,0.0
815,124.74148046750531
9,5775127.024558093
234,449069.32968301916
246,0.0
722,449069.32968301916
759,0.0
2,2, 1, 2, 0, 7, 0.00,60.00,Monday
231,0.0
232,0.0
305,0.0
306,0.0
331,0.0
332,0.0
357,0.0
358,0.0
602,18.003990630377048
641,18.046052952247249
680,18.00470234880311
719,18.000000000257236
720,444914.9016379106
757,0.0
806,123.58747267719738
807,20822.714763852215
808,0.0
809,5.784087434403393
810,299486.5981037558
811,0.0
812,83.19072169548773
813,1979101.3922368417
814,0.0
815,549.750386732456
9,5775127.024558093
234,2744325.60674236
246,0.0
722,2744325.60674236
759,0.0
2,2, 1, 2, 0, 8, 0.00,60.00,Monday
231,0.0
232,0.0
305,0.0
306,0.0
331,0.0
332,0.0
357,0.0
358,0.0
602,18.00000000000005
641,18.000000020193789
680,18.00000000000006
719,18.0
720,1196904.2984919022
757,0.0
806,332.47341624775057
807,482087.62097417228
808,0.0
809,133.91322804838118
810,901864.0516572287
811,0.0
812,250.51779212700803
813,2528943.871357726
814,0.0
815,702.4844087104794
9,5775127.024558093
234,5109799.842481029
246,0.0
722,5109799.842481029
759,0.0
2,2, 1, 2, 0, 9, 0.00,60.00,Monday
231,0.0
232,0.0
305,0.0
306,0.0
331,0.0
332,0.0
357,0.0
358,0.0
602,18.0
641,18.0
680,18.0
719,18.0
720,1464473.7057490799
757,0.0
806,406.79825159696659
807,776427.7910792178
808,0.0
809,215.67438641089383
810,1164468.213143152
811,0.0
812,323.4633925397644
813,2662378.108047542
814,0.0
815,739.5494744576506
9,5775127.024558093
234,6067747.8180189919
246,0.0
722,6067747.8180189919
759,0.0
2,2, 1, 2, 0,10, 0.00,60.00,Monday
231,2030.7741636043202
232,7310786.988975553
305,2030.7741636043202
306,7310786.988975553
331,2030.7741636043202
332,7310786.988975553
357,2030.7741636043202
358,7310786.988975553
602,20.695998242626787
641,20.69601169269252
680,20.696001229587887
719,20.695976412881597
720,16940618.460105845
757,0.0
806,4705.727350029402
807,16483261.451046352
808,0.0
809,4578.683736401765
810,17023434.050686674
811,0.0
812,4728.7316807462989
813,18283994.689235227
814,0.0
815,5078.887413676452
9,32164263.57690572
234,97974456.6069763
246,29243147.95590221
722,68731308.6510741
759,0.0
2,2, 1, 2, 0,11, 0.00,60.00,Monday
231,1015.3870818021601
232,3655393.4944877766
305,1015.3870818021601
306,3655393.4944877766
331,1015.3870818021601
332,3655393.4944877766
357,1015.3870818021601
358,3655393.4944877766
602,20.699999999999997
641,20.7
680,20.7
719,20.700000000000004
720,11682790.386422065
757,0.0
806,3245.219551783907
807,10831257.943964038
808,0.0
809,3008.6827622122334
810,11414206.907910474
811,0.0
812,3170.613029975131
813,12439128.585869048
814,0.0
815,3455.3134960747368
9,16606332.644701563
234,60988957.80211673
246,14621573.977951106
722,46367383.82416563
759,0.0
2,2, 1, 2, 0,12, 0.00,60.00,Monday
231,0.0
232,0.0
305,0.0
306,0.0
331,0.0
332,0.0
357,0.0
358,0.0
602,18.96136308054487
641,19.157505827213919
680,19.109375333634138
719,18.996866728987798
720,0.0
757,0.0
806,0.0
807,0.0
808,0.0
809,0.0
810,0.0
811,0.0
812,0.0
813,0.0
814,0.0
815,0.0
9,5775127.024558093
234,0.0
246,0.0
722,0.0
759,0.0
2,2, 1, 2, 0,13, 0.00,60.00,Monday
231,0.0
232,0.0
305,0.0
306,0.0
331,0.0
332,0.0
357,0.0
358,0.0
602,18.379945037534755
641,18.684359288134904
680,18.687511596118303
719,18.491852970573765
720,0.0
757,0.0
806,0.0
807,0.0
808,0.0
809,0.0
810,0.0
811,0.0
812,0.0
813,0.0
814,0.0
815,0.0
9,5775127.024558093
234,0.0
246,0.0
722,0.0
759,0.0
2,2, 1, 2, 0,14, 0.00,60.00,Monday
231,0.0
232,0.0
305,0.0
306,0.0
331,0.0
332,0.0
357,0.0
358,0.0
602,18.358725858799834
641,18.59766733958767
680,18.757940881760097
719,18.52178688027092
720,0.0
757,0.0
806,0.0
807,0.0
808,0.0
809,0.0
810,0.0
811,0.0
812,0.0
813,0.0
814,0.0
815,0.0
9,5775127.024558093
234,0.0
246,0.0
722,0.0
759,0.0
2,2, 1, 2, 0,15, 0.00,60.00,Monday
231,1015.3870818021601
232,3655393.4944877766
305,1015.3870818021601
306,3655393.4944877766
331,1015.3870818021601
332,3655393.4944877766
357,1015.3870818021601
358,3655393.4944877766
602,20.696928555021285
641,20.697416359697454
680,20.697878718381696
719,20.697363874130504
720,12530338.694798843
757,0.0
806,3480.6496374441237
807,11513064.395768512
808,0.0
809,3198.073443269031
810,10544897.306026213
811,0.0
812,2929.138140562837
813,12139785.64112107
814,0.0
815,3372.1626780891867
9,16606332.644701563
234,61349660.01566574
246,14621573.977951106
722,46728086.037714648
759,0.0
2,2, 1, 2, 0,16, 0.00,60.00,Monday
231,2030.7741636043202
232,7310786.988975553
305,2030.7741636043202
306,7310786.988975553
331,2030.7741636043202
332,7310786.988975553
357,2030.7741636043202
358,7310786.988975553
602,20.7
641,20.700000000000004
680,20.7
719,20.700000000000004
720,9048048.775623167
757,0.0
806,2513.346882117546
807,8554931.242467652
808,0.0
809,2376.3697895743478
810,8400478.95419335
811,0.0
812,2333.4663761648196
813,9783195.440405574
814,0.0
815,2717.554289001548
9,32164263.57690572
234,65029802.36859196
246,29243147.95590221
722,35786654.41268974
759,0.0
2,2, 1, 2, 0,17, 0.00,60.00,Monday
231,2030.7741636043202
232,7310786.988975553
305,2030.7741636043202
306,7310786.988975553
331,2030.7741636043202
332,7310786.988975553
357,2030.7741636043202
358,7310786.988975553
602,20.40127605903773
641,20.40127946345063
680,20.401280170923785
719,20.401268284469674
720,6993451.076753728
757,0.0
806,1942.6252990982576
807,6671696.846760988
808,0.0
809,1853.2491241002745
810,6639806.956462279
811,0.0
812,1844.3908212395218
813,8134218.807001472
814,0.0
815,2259.505224167076
9,34816349.14062488
234,57682321.64288068
246,29243147.95590221
722,28439173.68697847
759,0.0
2,2, 1, 2, 0,18, 0.00,60.00,Monday
231,2030.7741636043202
232,7310786.988975553
305,2030.7741636043202
306,7310786.988975553
331,2030.7741636043202
332,7310786.988975553
357,2030.7741636043202
358,7310786.988975553
602,20.400000000105263
641,20.40000000010672
680,20.400000000106897
719,20.40000000010465
720,8864734.641053059
757,0.0
806,2462.426289181405
807,8510274.589133049
808,0.0
809,2363.9651636480696
810,8537474.483673802
811,0.0
812,2371.520689909389
813,10256780.466539449
814,0.0
815,2849.1056851498467
9,14072441.231019335
234,65412412.13630156
246,29243147.95590221
722,36169264.18039936
759,0.0
2,2, 1, 2, 0,19, 0.00,60.00,Monday
231,2538.4677045054006
232,9138483.736219442
305,2538.4677045054006
306,9138483.736219442
331,2538.4677045054006
332,9138483.736219442
357,2538.4677045054006
358,9138483.736219442
602,20.4
641,20.4
680,20.4
719,20.4
720,9706104.33927755
757,0.0
806,2696.1400942437646
807,9319927.32054737
808,0.0
809,2588.8687001520477
810,9397918.726914309
811,0.0
812,2610.5329796984194
813,11203932.350781789
814,0.0
815,3112.203430772719
9,14072441.231019335
234,76181817.68239878
246,36553934.944877769
722,39627882.737521018
759,0.0
2,2, 1, 2, 0,20, 0.00,60.00,Monday
231,0.0
232,0.0
305,0.0
306,0.0
331,0.0
332,0.0
357,0.0
358,0.0
602,18.847069055636668
641,18.924739144361305
680,18.9200433442101
719,18.704642426513304
720,0.0
757,0.0
806,0.0
807,0.0
808,0.0
809,0.0
810,0.0
811,0.0
812,0.0
813,0.0
814,0.0
815,0.0
9,5185976.977401385
234,0.0
246,0.0
722,0.0
759,0.0
2,2, 1, 2, 0,21, 0.00,60.00,Monday
231,0.0
232,0.0
305,0.0
306,0.0
331,0.0
332,0.0
357,0.0
358,0.0
602,18.182846954199698
641,18.35123016817995
680,18.344711636261516
719,18.03538299893487
720,0.0
757,0.0
806,0.0
807,0.0
808,0.0
809,0.0
810,0.0
811,0.0
812,0.0
813,0.0
814,0.0
815,0.0
9,3241235.610875866
234,0.0
246,0.0
722,0.0
759,0.0
2,2, 1, 2, 0,22, 0.00,60.00,Monday
231,0.0
232,0.0
305,0.0
306,0.0
331,0.0
332,0.0
357,0.0
358,0.0
602,18.008269577425119
641,18.22097603897325
680,18.208429054458159
719,17.867511420884516
720,0.0
757,0.0
806,0.0
807,0.0
808,0.0
809,0.0
810,0.0
811,0.0
812,0.0
813,0.0
814,0.0
815,0.0
9,3241235.610875866
234,0.0
246,0.0
722,0.0
759,0.0
2,2, 1, 2, 0,23, 0.00,60.00,Monday
231,0.0
232,0.0
305,0.0
306,0.0
331,0.0
332,0.0
357,0.0
358,0.0
602,17.86189643365777
641,18.0976024204608
680,18.080309626444945
719,17.721104814253388
720,0.0
757,0.0
806,0.0
807,0.0
808,0.0
809,0.0
810,0.0
811,0.0
812,0.0
813,0.0
814,0.0
815,0.0
9,3241235.610875866
234,0.0